LAMMPS data file via write_data, version 29 Sep 2021, timestep = 0

12046 atoms
2 atom types
16834 bonds
3 bond types

-30 1025 xlo xhi
-10 1000 ylo yhi
-0.5 0.5 zlo zhi

Masses

1 1
2 1

Pair Coeffs # lj/cut

1 1 1
2 1 1

Bond Coeffs # harmonic

1 0.002 10
2 0.000125 10
3 2e-05 10

Atoms # full

1 1 1 0 -20 0 0 0 0 0
2 1 1 0 -15 8.66 0 0 0 0
3 1 1 0 -20 17.321 0 0 0 0
4 1 1 0 -15 25.981 0 0 0 0
5 1 1 0 -20 34.641 0 0 0 0
6 1 1 0 -15 43.301 0 0 0 0
7 1 1 0 -20 51.962 0 0 0 0
8 1 1 0 -15 60.622 0 0 0 0
9 1 1 0 -20 69.282 0 0 0 0
10 1 1 0 -15 77.942 0 0 0 0
11 1 1 0 -20 86.603 0 0 0 0
12 1 1 0 -15 95.263 0 0 0 0
13 1 1 0 -20 103.923 0 0 0 0
14 1 1 0 -15 112.583 0 0 0 0
15 1 1 0 -20 121.244 0 0 0 0
16 1 1 0 -15 129.904 0 0 0 0
17 1 1 0 -20 138.564 0 0 0 0
18 1 1 0 -15 147.224 0 0 0 0
19 1 1 0 -20 155.885 0 0 0 0
20 1 1 0 -15 164.545 0 0 0 0
21 1 1 0 -20 173.205 0 0 0 0
22 1 1 0 -15 181.865 0 0 0 0
23 1 1 0 -20 190.526 0 0 0 0
24 1 1 0 -15 199.186 0 0 0 0
25 1 1 0 -20 207.846 0 0 0 0
26 1 1 0 -15 216.506 0 0 0 0
27 1 1 0 -20 225.167 0 0 0 0
28 1 1 0 -15 233.827 0 0 0 0
29 1 1 0 -20 242.487 0 0 0 0
30 1 1 0 -15 251.147 0 0 0 0
31 1 1 0 -20 259.808 0 0 0 0
32 1 1 0 -15 268.468 0 0 0 0
33 1 1 0 -20 277.128 0 0 0 0
34 1 1 0 -15 285.788 0 0 0 0
35 1 1 0 -20 294.449 0 0 0 0
36 1 1 0 -15 303.109 0 0 0 0
37 1 1 0 -20 311.769 0 0 0 0
38 1 1 0 -15 320.429 0 0 0 0
39 1 1 0 -20 329.09 0 0 0 0
40 1 1 0 -15 337.75 0 0 0 0
41 1 1 0 -20 346.41 0 0 0 0
42 1 1 0 -15 355.07 0 0 0 0
43 1 1 0 -20 363.731 0 0 0 0
44 1 1 0 -15 372.391 0 0 0 0
45 1 1 0 -20 381.051 0 0 0 0
46 1 1 0 -15 389.711 0 0 0 0
47 1 1 0 -20 398.372 0 0 0 0
48 1 1 0 -15 407.032 0 0 0 0
49 1 1 0 -20 415.692 0 0 0 0
50 1 1 0 -15 424.352 0 0 0 0
51 1 1 0 -20 433.013 0 0 0 0
52 1 1 0 -15 441.673 0 0 0 0
53 1 1 0 -20 450.333 0 0 0 0
54 1 1 0 -15 458.993 0 0 0 0
55 1 1 0 -20 467.654 0 0 0 0
56 1 1 0 -15 476.314 0 0 0 0
57 1 1 0 -20 484.974 0 0 0 0
58 1 1 0 -15 493.634 0 0 0 0
59 1 1 0 -20 502.295 0 0 0 0
60 1 1 0 -15 510.955 0 0 0 0
61 1 1 0 -20 519.615 0 0 0 0
62 1 1 0 -15 528.275 0 0 0 0
63 1 1 0 -20 536.936 0 0 0 0
64 1 1 0 -15 545.596 0 0 0 0
65 1 1 0 -20 554.256 0 0 0 0
66 1 1 0 -15 562.917 0 0 0 0
67 1 1 0 -20 571.577 0 0 0 0
68 1 1 0 -15 580.237 0 0 0 0
69 1 1 0 -20 588.897 0 0 0 0
70 1 1 0 -15 597.558 0 0 0 0
71 1 1 0 -20 606.218 0 0 0 0
72 1 1 0 -15 614.878 0 0 0 0
73 1 1 0 -20 623.538 0 0 0 0
74 1 1 0 -15 632.199 0 0 0 0
75 1 1 0 -20 640.859 0 0 0 0
76 1 1 0 -15 649.519 0 0 0 0
77 1 1 0 -20 658.179 0 0 0 0
78 1 1 0 -15 666.84 0 0 0 0
79 1 1 0 -20 675.5 0 0 0 0
80 1 1 0 -15 684.16 0 0 0 0
81 1 1 0 -20 692.82 0 0 0 0
82 1 1 0 -15 701.481 0 0 0 0
83 1 1 0 -20 710.141 0 0 0 0
84 1 1 0 -15 718.801 0 0 0 0
85 1 1 0 -20 727.461 0 0 0 0
86 1 1 0 -15 736.122 0 0 0 0
87 1 1 0 -20 744.782 0 0 0 0
88 1 1 0 -15 753.442 0 0 0 0
89 1 1 0 -20 762.102 0 0 0 0
90 1 1 0 -15 770.763 0 0 0 0
91 1 1 0 -20 779.423 0 0 0 0
92 1 1 0 -15 788.083 0 0 0 0
93 1 1 0 -20 796.743 0 0 0 0
94 1 1 0 -15 805.404 0 0 0 0
95 1 1 0 -20 814.064 0 0 0 0
96 1 1 0 -15 822.724 0 0 0 0
97 1 1 0 -20 831.384 0 0 0 0
98 1 1 0 -15 840.045 0 0 0 0
99 1 1 0 -20 848.705 0 0 0 0
100 1 1 0 -15 857.365 0 0 0 0
101 1 1 0 -20 866.025 0 0 0 0
102 1 1 0 -15 874.686 0 0 0 0
103 1 1 0 -20 883.346 0 0 0 0
104 1 1 0 -15 892.006 0 0 0 0
105 1 1 0 -20 900.666 0 0 0 0
106 1 1 0 -15 909.327 0 0 0 0
107 1 1 0 -20 917.987 0 0 0 0
108 1 1 0 -15 926.647 0 0 0 0
109 1 1 0 -20 935.307 0 0 0 0
110 1 1 0 -15 943.968 0 0 0 0
111 1 1 0 -20 952.628 0 0 0 0
112 1 1 0 -15 961.288 0 0 0 0
113 1 1 0 -20 969.948 0 0 0 0
114 1 1 0 -15 978.609 0 0 0 0
115 1 1 0 -20 987.269 0 0 0 0
116 1 1 0 -15 995.929 0 0 0 0
117 1 1 0 -10 0 0 0 0 0
118 1 1 0 -5 8.66 0 0 0 0
119 1 1 0 -10 17.321 0 0 0 0
120 1 1 0 -5 25.981 0 0 0 0
121 1 1 0 -10 34.641 0 0 0 0
122 1 1 0 -5 43.301 0 0 0 0
123 1 1 0 -10 51.962 0 0 0 0
124 1 1 0 -5 60.622 0 0 0 0
125 1 1 0 -10 69.282 0 0 0 0
126 1 1 0 -5 77.942 0 0 0 0
127 1 1 0 -10 86.603 0 0 0 0
128 1 1 0 -5 95.263 0 0 0 0
129 1 1 0 -10 103.923 0 0 0 0
130 1 1 0 -5 112.583 0 0 0 0
131 1 1 0 -10 121.244 0 0 0 0
132 1 1 0 -5 129.904 0 0 0 0
133 1 1 0 -10 138.564 0 0 0 0
134 1 1 0 -5 147.224 0 0 0 0
135 1 1 0 -10 155.885 0 0 0 0
136 1 1 0 -5 164.545 0 0 0 0
137 1 1 0 -10 173.205 0 0 0 0
138 1 1 0 -5 181.865 0 0 0 0
139 1 1 0 -10 190.526 0 0 0 0
140 1 1 0 -5 199.186 0 0 0 0
141 1 1 0 -10 207.846 0 0 0 0
142 1 1 0 -5 216.506 0 0 0 0
143 1 1 0 -10 225.167 0 0 0 0
144 1 1 0 -5 233.827 0 0 0 0
145 1 1 0 -10 242.487 0 0 0 0
146 1 1 0 -5 251.147 0 0 0 0
147 1 1 0 -10 259.808 0 0 0 0
148 1 1 0 -5 268.468 0 0 0 0
149 1 1 0 -10 277.128 0 0 0 0
150 1 1 0 -5 285.788 0 0 0 0
151 1 1 0 -10 294.449 0 0 0 0
152 1 1 0 -5 303.109 0 0 0 0
153 1 1 0 -10 311.769 0 0 0 0
154 1 1 0 -5 320.429 0 0 0 0
155 1 1 0 -10 329.09 0 0 0 0
156 1 1 0 -5 337.75 0 0 0 0
157 1 1 0 -10 346.41 0 0 0 0
158 1 1 0 -5 355.07 0 0 0 0
159 1 1 0 -10 363.731 0 0 0 0
160 1 1 0 -5 372.391 0 0 0 0
161 1 1 0 -10 381.051 0 0 0 0
162 1 1 0 -5 389.711 0 0 0 0
163 1 1 0 -10 398.372 0 0 0 0
164 1 1 0 -5 407.032 0 0 0 0
165 1 1 0 -10 415.692 0 0 0 0
166 1 1 0 -5 424.352 0 0 0 0
167 1 1 0 -10 433.013 0 0 0 0
168 1 1 0 -5 441.673 0 0 0 0
169 1 1 0 -10 450.333 0 0 0 0
170 1 1 0 -5 458.993 0 0 0 0
171 1 1 0 -10 467.654 0 0 0 0
172 1 1 0 -5 476.314 0 0 0 0
173 1 1 0 -10 484.974 0 0 0 0
174 1 1 0 -5 493.634 0 0 0 0
175 1 1 0 -10 502.295 0 0 0 0
176 1 1 0 -5 510.955 0 0 0 0
177 1 1 0 -10 519.615 0 0 0 0
178 1 1 0 -5 528.275 0 0 0 0
179 1 1 0 -10 536.936 0 0 0 0
180 1 1 0 -5 545.596 0 0 0 0
181 1 1 0 -10 554.256 0 0 0 0
182 1 1 0 -5 562.917 0 0 0 0
183 1 1 0 -10 571.577 0 0 0 0
184 1 1 0 -5 580.237 0 0 0 0
185 1 1 0 -10 588.897 0 0 0 0
186 1 1 0 -5 597.558 0 0 0 0
187 1 1 0 -10 606.218 0 0 0 0
188 1 1 0 -5 614.878 0 0 0 0
189 1 1 0 -10 623.538 0 0 0 0
190 1 1 0 -5 632.199 0 0 0 0
191 1 1 0 -10 640.859 0 0 0 0
192 1 1 0 -5 649.519 0 0 0 0
193 1 1 0 -10 658.179 0 0 0 0
194 1 1 0 -5 666.84 0 0 0 0
195 1 1 0 -10 675.5 0 0 0 0
196 1 1 0 -5 684.16 0 0 0 0
197 1 1 0 -10 692.82 0 0 0 0
198 1 1 0 -5 701.481 0 0 0 0
199 1 1 0 -10 710.141 0 0 0 0
200 1 1 0 -5 718.801 0 0 0 0
201 1 1 0 -10 727.461 0 0 0 0
202 1 1 0 -5 736.122 0 0 0 0
203 1 1 0 -10 744.782 0 0 0 0
204 1 1 0 -5 753.442 0 0 0 0
205 1 1 0 -10 762.102 0 0 0 0
206 1 1 0 -5 770.763 0 0 0 0
207 1 1 0 -10 779.423 0 0 0 0
208 1 1 0 -5 788.083 0 0 0 0
209 1 1 0 -10 796.743 0 0 0 0
210 1 1 0 -5 805.404 0 0 0 0
211 1 1 0 -10 814.064 0 0 0 0
212 1 1 0 -5 822.724 0 0 0 0
213 1 1 0 -10 831.384 0 0 0 0
214 1 1 0 -5 840.045 0 0 0 0
215 1 1 0 -10 848.705 0 0 0 0
216 1 1 0 -5 857.365 0 0 0 0
217 1 1 0 -10 866.025 0 0 0 0
218 1 1 0 -5 874.686 0 0 0 0
219 1 1 0 -10 883.346 0 0 0 0
220 1 1 0 -5 892.006 0 0 0 0
221 1 1 0 -10 900.666 0 0 0 0
222 1 1 0 -5 909.327 0 0 0 0
223 1 1 0 -10 917.987 0 0 0 0
224 1 1 0 -5 926.647 0 0 0 0
225 1 1 0 -10 935.307 0 0 0 0
226 1 1 0 -5 943.968 0 0 0 0
227 1 1 0 -10 952.628 0 0 0 0
228 1 1 0 -5 961.288 0 0 0 0
229 1 1 0 -10 969.948 0 0 0 0
230 1 1 0 -5 978.609 0 0 0 0
231 1 1 0 -10 987.269 0 0 0 0
232 1 1 0 -5 995.929 0 0 0 0
233 1 2 0 0 0 0 0 0 0
234 1 2 0 5 8.66 0 0 0 0
235 1 2 0 0 17.321 0 0 0 0
236 1 2 0 5 25.981 0 0 0 0
237 1 2 0 0 34.641 0 0 0 0
238 1 2 0 5 43.301 0 0 0 0
239 1 2 0 0 51.962 0 0 0 0
240 1 2 0 5 60.622 0 0 0 0
241 1 2 0 0 69.282 0 0 0 0
242 1 2 0 5 77.942 0 0 0 0
243 1 2 0 0 86.603 0 0 0 0
244 1 2 0 5 95.263 0 0 0 0
245 1 2 0 0 103.923 0 0 0 0
246 1 2 0 5 112.583 0 0 0 0
247 1 2 0 0 121.244 0 0 0 0
248 1 1 0 5 129.904 0 0 0 0
249 1 1 0 0 138.564 0 0 0 0
250 1 1 0 5 147.224 0 0 0 0
251 1 2 0 0 155.885 0 0 0 0
252 1 2 0 5 164.545 0 0 0 0
253 1 2 0 0 173.205 0 0 0 0
254 1 2 0 5 181.865 0 0 0 0
255 1 2 0 0 190.526 0 0 0 0
256 1 1 0 5 199.186 0 0 0 0
257 1 1 0 0 207.846 0 0 0 0
258 1 2 0 5 216.506 0 0 0 0
259 1 2 0 0 225.167 0 0 0 0
260 1 2 0 5 233.827 0 0 0 0
261 1 2 0 0 242.487 0 0 0 0
262 1 2 0 5 251.147 0 0 0 0
263 1 1 0 0 259.808 0 0 0 0
264 1 1 0 5 268.468 0 0 0 0
265 1 1 0 0 277.128 0 0 0 0
266 1 1 0 5 285.788 0 0 0 0
267 1 2 0 0 294.449 0 0 0 0
268 1 2 0 5 303.109 0 0 0 0
269 1 2 0 0 311.769 0 0 0 0
270 1 2 0 5 320.429 0 0 0 0
271 1 2 0 0 329.09 0 0 0 0
272 1 2 0 5 337.75 0 0 0 0
273 1 1 0 0 346.41 0 0 0 0
274 1 1 0 5 355.07 0 0 0 0
275 1 1 0 0 363.731 0 0 0 0
276 1 2 0 5 372.391 0 0 0 0
277 1 2 0 0 381.051 0 0 0 0
278 1 2 0 5 389.711 0 0 0 0
279 1 1 0 0 398.372 0 0 0 0
280 1 1 0 5 407.032 0 0 0 0
281 1 2 0 0 415.692 0 0 0 0
282 1 2 0 5 424.352 0 0 0 0
283 1 2 0 0 433.013 0 0 0 0
284 1 1 0 5 441.673 0 0 0 0
285 1 1 0 0 450.333 0 0 0 0
286 1 1 0 5 458.993 0 0 0 0
287 1 2 0 0 467.654 0 0 0 0
288 1 2 0 5 476.314 0 0 0 0
289 1 2 0 0 484.974 0 0 0 0
290 1 2 0 5 493.634 0 0 0 0
291 1 2 0 0 502.295 0 0 0 0
292 1 2 0 5 510.955 0 0 0 0
293 1 1 0 0 519.615 0 0 0 0
294 1 1 0 5 528.275 0 0 0 0
295 1 1 0 0 536.936 0 0 0 0
296 1 2 0 5 545.596 0 0 0 0
297 1 1 0 0 554.256 0 0 0 0
298 1 1 0 5 562.917 0 0 0 0
299 1 2 0 0 571.577 0 0 0 0
300 1 2 0 5 580.237 0 0 0 0
301 1 2 0 0 588.897 0 0 0 0
302 1 2 0 5 597.558 0 0 0 0
303 1 2 0 0 606.218 0 0 0 0
304 1 2 0 5 614.878 0 0 0 0
305 1 1 0 0 623.538 0 0 0 0
306 1 1 0 5 632.199 0 0 0 0
307 1 1 0 0 640.859 0 0 0 0
308 1 2 0 5 649.519 0 0 0 0
309 1 2 0 0 658.179 0 0 0 0
310 1 2 0 5 666.84 0 0 0 0
311 1 1 0 0 675.5 0 0 0 0
312 1 2 0 5 684.16 0 0 0 0
313 1 2 0 0 692.82 0 0 0 0
314 1 2 0 5 701.481 0 0 0 0
315 1 2 0 0 710.141 0 0 0 0
316 1 2 0 5 718.801 0 0 0 0
317 1 2 0 0 727.461 0 0 0 0
318 1 2 0 5 736.122 0 0 0 0
319 1 2 0 0 744.782 0 0 0 0
320 1 2 0 5 753.442 0 0 0 0
321 1 2 0 0 762.102 0 0 0 0
322 1 2 0 5 770.763 0 0 0 0
323 1 2 0 0 779.423 0 0 0 0
324 1 2 0 5 788.083 0 0 0 0
325 1 2 0 0 796.743 0 0 0 0
326 1 1 0 5 805.404 0 0 0 0
327 1 1 0 0 814.064 0 0 0 0
328 1 2 0 5 822.724 0 0 0 0
329 1 2 0 0 831.384 0 0 0 0
330 1 2 0 5 840.045 0 0 0 0
331 1 2 0 0 848.705 0 0 0 0
332 1 2 0 5 857.365 0 0 0 0
333 1 1 0 0 866.025 0 0 0 0
334 1 1 0 5 874.686 0 0 0 0
335 1 2 0 0 883.346 0 0 0 0
336 1 2 0 5 892.006 0 0 0 0
337 1 2 0 0 900.666 0 0 0 0
338 1 2 0 5 909.327 0 0 0 0
339 1 1 0 0 917.987 0 0 0 0
340 1 1 0 5 926.647 0 0 0 0
341 1 1 0 0 935.307 0 0 0 0
342 1 2 0 5 943.968 0 0 0 0
343 1 2 0 0 952.628 0 0 0 0
344 1 2 0 5 961.288 0 0 0 0
345 1 2 0 0 969.948 0 0 0 0
346 1 2 0 5 978.609 0 0 0 0
347 1 2 0 0 987.269 0 0 0 0
348 1 1 0 5 995.929 0 0 0 0
349 1 1 0 10 0 0 0 0 0
350 1 2 0 15 8.66 0 0 0 0
351 1 2 0 10 17.321 0 0 0 0
352 1 2 0 15 25.981 0 0 0 0
353 1 2 0 10 34.641 0 0 0 0
354 1 2 0 15 43.301 0 0 0 0
355 1 1 0 10 51.962 0 0 0 0
356 1 2 0 15 60.622 0 0 0 0
357 1 2 0 10 69.282 0 0 0 0
358 1 2 0 15 77.942 0 0 0 0
359 1 2 0 10 86.603 0 0 0 0
360 1 2 0 15 95.263 0 0 0 0
361 1 2 0 10 103.923 0 0 0 0
362 1 2 0 15 112.583 0 0 0 0
363 1 2 0 10 121.244 0 0 0 0
364 1 1 0 15 129.904 0 0 0 0
365 1 1 0 10 138.564 0 0 0 0
366 1 2 0 15 147.224 0 0 0 0
367 1 2 0 10 155.885 0 0 0 0
368 1 2 0 15 164.545 0 0 0 0
369 1 2 0 10 173.205 0 0 0 0
370 1 1 0 15 181.865 0 0 0 0
371 1 1 0 10 190.526 0 0 0 0
372 1 1 0 15 199.186 0 0 0 0
373 1 2 0 10 207.846 0 0 0 0
374 1 2 0 15 216.506 0 0 0 0
375 1 2 0 10 225.167 0 0 0 0
376 1 2 0 15 233.827 0 0 0 0
377 1 2 0 10 242.487 0 0 0 0
378 1 2 0 15 251.147 0 0 0 0
379 1 2 0 10 259.808 0 0 0 0
380 1 2 0 15 268.468 0 0 0 0
381 1 1 0 10 277.128 0 0 0 0
382 1 1 0 15 285.788 0 0 0 0
383 1 2 0 10 294.449 0 0 0 0
384 1 2 0 15 303.109 0 0 0 0
385 1 2 0 10 311.769 0 0 0 0
386 1 2 0 15 320.429 0 0 0 0
387 1 2 0 10 329.09 0 0 0 0
388 1 2 0 15 337.75 0 0 0 0
389 1 1 0 10 346.41 0 0 0 0
390 1 2 0 15 355.07 0 0 0 0
391 1 2 0 10 363.731 0 0 0 0
392 1 2 0 15 372.391 0 0 0 0
393 1 2 0 10 381.051 0 0 0 0
394 1 2 0 15 389.711 0 0 0 0
395 1 2 0 10 398.372 0 0 0 0
396 1 2 0 15 407.032 0 0 0 0
397 1 1 0 10 415.692 0 0 0 0
398 1 1 0 15 424.352 0 0 0 0
399 1 1 0 10 433.013 0 0 0 0
400 1 1 0 15 441.673 0 0 0 0
401 1 1 0 10 450.333 0 0 0 0
402 1 1 0 15 458.993 0 0 0 0
403 1 2 0 10 467.654 0 0 0 0
404 1 2 0 15 476.314 0 0 0 0
405 1 2 0 10 484.974 0 0 0 0
406 1 2 0 15 493.634 0 0 0 0
407 1 2 0 10 502.295 0 0 0 0
408 1 2 0 15 510.955 0 0 0 0
409 1 1 0 10 519.615 0 0 0 0
410 1 1 0 15 528.275 0 0 0 0
411 1 2 0 10 536.936 0 0 0 0
412 1 2 0 15 545.596 0 0 0 0
413 1 2 0 10 554.256 0 0 0 0
414 1 2 0 15 562.917 0 0 0 0
415 1 2 0 10 571.577 0 0 0 0
416 1 1 0 15 580.237 0 0 0 0
417 1 2 0 10 588.897 0 0 0 0
418 1 2 0 15 597.558 0 0 0 0
419 1 2 0 10 606.218 0 0 0 0
420 1 1 0 15 614.878 0 0 0 0
421 1 1 0 10 623.538 0 0 0 0
422 1 2 0 15 632.199 0 0 0 0
423 1 2 0 10 640.859 0 0 0 0
424 1 2 0 15 649.519 0 0 0 0
425 1 2 0 10 658.179 0 0 0 0
426 1 2 0 15 666.84 0 0 0 0
427 1 2 0 10 675.5 0 0 0 0
428 1 1 0 15 684.16 0 0 0 0
429 1 2 0 10 692.82 0 0 0 0
430 1 2 0 15 701.481 0 0 0 0
431 1 2 0 10 710.141 0 0 0 0
432 1 2 0 15 718.801 0 0 0 0
433 1 2 0 10 727.461 0 0 0 0
434 1 2 0 15 736.122 0 0 0 0
435 1 1 0 10 744.782 0 0 0 0
436 1 2 0 15 753.442 0 0 0 0
437 1 2 0 10 762.102 0 0 0 0
438 1 2 0 15 770.763 0 0 0 0
439 1 2 0 10 779.423 0 0 0 0
440 1 2 0 15 788.083 0 0 0 0
441 1 2 0 10 796.743 0 0 0 0
442 1 1 0 15 805.404 0 0 0 0
443 1 1 0 10 814.064 0 0 0 0
444 1 1 0 15 822.724 0 0 0 0
445 1 2 0 10 831.384 0 0 0 0
446 1 2 0 15 840.045 0 0 0 0
447 1 2 0 10 848.705 0 0 0 0
448 1 2 0 15 857.365 0 0 0 0
449 1 1 0 10 866.025 0 0 0 0
450 1 1 0 15 874.686 0 0 0 0
451 1 1 0 10 883.346 0 0 0 0
452 1 1 0 15 892.006 0 0 0 0
453 1 1 0 10 900.666 0 0 0 0
454 1 1 0 15 909.327 0 0 0 0
455 1 1 0 10 917.987 0 0 0 0
456 1 1 0 15 926.647 0 0 0 0
457 1 1 0 10 935.307 0 0 0 0
458 1 1 0 15 943.968 0 0 0 0
459 1 2 0 10 952.628 0 0 0 0
460 1 2 0 15 961.288 0 0 0 0
461 1 2 0 10 969.948 0 0 0 0
462 1 2 0 15 978.609 0 0 0 0
463 1 1 0 10 987.269 0 0 0 0
464 1 1 0 15 995.929 0 0 0 0
465 1 1 0 20 0 0 0 0 0
466 1 1 0 25 8.66 0 0 0 0
467 1 2 0 20 17.321 0 0 0 0
468 1 1 0 25 25.981 0 0 0 0
469 1 2 0 20 34.641 0 0 0 0
470 1 1 0 25 43.301 0 0 0 0
471 1 1 0 20 51.962 0 0 0 0
472 1 2 0 25 60.622 0 0 0 0
473 1 2 0 20 69.282 0 0 0 0
474 1 2 0 25 77.942 0 0 0 0
475 1 2 0 20 86.603 0 0 0 0
476 1 2 0 25 95.263 0 0 0 0
477 1 2 0 20 103.923 0 0 0 0
478 1 2 0 25 112.583 0 0 0 0
479 1 2 0 20 121.244 0 0 0 0
480 1 1 0 25 129.904 0 0 0 0
481 1 2 0 20 138.564 0 0 0 0
482 1 2 0 25 147.224 0 0 0 0
483 1 2 0 20 155.885 0 0 0 0
484 1 2 0 25 164.545 0 0 0 0
485 1 2 0 20 173.205 0 0 0 0
486 1 1 0 25 181.865 0 0 0 0
487 1 1 0 20 190.526 0 0 0 0
488 1 1 0 25 199.186 0 0 0 0
489 1 2 0 20 207.846 0 0 0 0
490 1 2 0 25 216.506 0 0 0 0
491 1 2 0 20 225.167 0 0 0 0
492 1 2 0 25 233.827 0 0 0 0
493 1 2 0 20 242.487 0 0 0 0
494 1 2 0 25 251.147 0 0 0 0
495 1 2 0 20 259.808 0 0 0 0
496 1 2 0 25 268.468 0 0 0 0
497 1 1 0 20 277.128 0 0 0 0
498 1 1 0 25 285.788 0 0 0 0
499 1 2 0 20 294.449 0 0 0 0
500 1 2 0 25 303.109 0 0 0 0
501 1 2 0 20 311.769 0 0 0 0
502 1 2 0 25 320.429 0 0 0 0
503 1 2 0 20 329.09 0 0 0 0
504 1 2 0 25 337.75 0 0 0 0
505 1 1 0 20 346.41 0 0 0 0
506 1 2 0 25 355.07 0 0 0 0
507 1 2 0 20 363.731 0 0 0 0
508 1 2 0 25 372.391 0 0 0 0
509 1 2 0 20 381.051 0 0 0 0
510 1 2 0 25 389.711 0 0 0 0
511 1 2 0 20 398.372 0 0 0 0
512 1 2 0 25 407.032 0 0 0 0
513 1 1 0 20 415.692 0 0 0 0
514 1 1 0 25 424.352 0 0 0 0
515 1 1 0 20 433.013 0 0 0 0
516 1 2 0 25 441.673 0 0 0 0
517 1 2 0 20 450.333 0 0 0 0
518 1 2 0 25 458.993 0 0 0 0
519 1 1 0 20 467.654 0 0 0 0
520 1 2 0 25 476.314 0 0 0 0
521 1 2 0 20 484.974 0 0 0 0
522 1 2 0 25 493.634 0 0 0 0
523 1 2 0 20 502.295 0 0 0 0
524 1 2 0 25 510.955 0 0 0 0
525 1 1 0 20 519.615 0 0 0 0
526 1 2 0 25 528.275 0 0 0 0
527 1 2 0 20 536.936 0 0 0 0
528 1 2 0 25 545.596 0 0 0 0
529 1 2 0 20 554.256 0 0 0 0
530 1 2 0 25 562.917 0 0 0 0
531 1 2 0 20 571.577 0 0 0 0
532 1 1 0 25 580.237 0 0 0 0
533 1 1 0 20 588.897 0 0 0 0
534 1 1 0 25 597.558 0 0 0 0
535 1 1 0 20 606.218 0 0 0 0
536 1 1 0 25 614.878 0 0 0 0
537 1 1 0 20 623.538 0 0 0 0
538 1 2 0 25 632.199 0 0 0 0
539 1 2 0 20 640.859 0 0 0 0
540 1 2 0 25 649.519 0 0 0 0
541 1 2 0 20 658.179 0 0 0 0
542 1 2 0 25 666.84 0 0 0 0
543 1 2 0 20 675.5 0 0 0 0
544 1 1 0 25 684.16 0 0 0 0
545 1 2 0 20 692.82 0 0 0 0
546 1 2 0 25 701.481 0 0 0 0
547 1 2 0 20 710.141 0 0 0 0
548 1 2 0 25 718.801 0 0 0 0
549 1 2 0 20 727.461 0 0 0 0
550 1 2 0 25 736.122 0 0 0 0
551 1 1 0 20 744.782 0 0 0 0
552 1 1 0 25 753.442 0 0 0 0
553 1 2 0 20 762.102 0 0 0 0
554 1 2 0 25 770.763 0 0 0 0
555 1 2 0 20 779.423 0 0 0 0
556 1 1 0 25 788.083 0 0 0 0
557 1 1 0 20 796.743 0 0 0 0
558 1 1 0 25 805.404 0 0 0 0
559 1 1 0 20 814.064 0 0 0 0
560 1 1 0 25 822.724 0 0 0 0
561 1 1 0 20 831.384 0 0 0 0
562 1 1 0 25 840.045 0 0 0 0
563 1 1 0 20 848.705 0 0 0 0
564 1 1 0 25 857.365 0 0 0 0
565 1 1 0 20 866.025 0 0 0 0
566 1 2 0 25 874.686 0 0 0 0
567 1 1 0 20 883.346 0 0 0 0
568 1 2 0 25 892.006 0 0 0 0
569 1 1 0 20 900.666 0 0 0 0
570 1 1 0 25 909.327 0 0 0 0
571 1 1 0 20 917.987 0 0 0 0
572 1 1 0 25 926.647 0 0 0 0
573 1 1 0 20 935.307 0 0 0 0
574 1 2 0 25 943.968 0 0 0 0
575 1 1 0 20 952.628 0 0 0 0
576 1 1 0 25 961.288 0 0 0 0
577 1 2 0 20 969.948 0 0 0 0
578 1 1 0 25 978.609 0 0 0 0
579 1 1 0 20 987.269 0 0 0 0
580 1 1 0 25 995.929 0 0 0 0
581 1 1 0 30 0 0 0 0 0
582 1 1 0 35 8.66 0 0 0 0
583 1 1 0 30 17.321 0 0 0 0
584 1 2 0 35 25.981 0 0 0 0
585 1 1 0 30 34.641 0 0 0 0
586 1 1 0 35 43.301 0 0 0 0
587 1 1 0 30 51.962 0 0 0 0
588 1 1 0 35 60.622 0 0 0 0
589 1 2 0 30 69.282 0 0 0 0
590 1 2 0 35 77.942 0 0 0 0
591 1 2 0 30 86.603 0 0 0 0
592 1 2 0 35 95.263 0 0 0 0
593 1 2 0 30 103.923 0 0 0 0
594 1 2 0 35 112.583 0 0 0 0
595 1 2 0 30 121.244 0 0 0 0
596 1 1 0 35 129.904 0 0 0 0
597 1 2 0 30 138.564 0 0 0 0
598 1 2 0 35 147.224 0 0 0 0
599 1 2 0 30 155.885 0 0 0 0
600 1 2 0 35 164.545 0 0 0 0
601 1 2 0 30 173.205 0 0 0 0
602 1 2 0 35 181.865 0 0 0 0
603 1 1 0 30 190.526 0 0 0 0
604 1 1 0 35 199.186 0 0 0 0
605 1 2 0 30 207.846 0 0 0 0
606 1 2 0 35 216.506 0 0 0 0
607 1 2 0 30 225.167 0 0 0 0
608 1 2 0 35 233.827 0 0 0 0
609 1 2 0 30 242.487 0 0 0 0
610 1 2 0 35 251.147 0 0 0 0
611 1 2 0 30 259.808 0 0 0 0
612 1 2 0 35 268.468 0 0 0 0
613 1 1 0 30 277.128 0 0 0 0
614 1 1 0 35 285.788 0 0 0 0
615 1 1 0 30 294.449 0 0 0 0
616 1 2 0 35 303.109 0 0 0 0
617 1 2 0 30 311.769 0 0 0 0
618 1 2 0 35 320.429 0 0 0 0
619 1 2 0 30 329.09 0 0 0 0
620 1 2 0 35 337.75 0 0 0 0
621 1 1 0 30 346.41 0 0 0 0
622 1 2 0 35 355.07 0 0 0 0
623 1 2 0 30 363.731 0 0 0 0
624 1 2 0 35 372.391 0 0 0 0
625 1 2 0 30 381.051 0 0 0 0
626 1 2 0 35 389.711 0 0 0 0
627 1 2 0 30 398.372 0 0 0 0
628 1 2 0 35 407.032 0 0 0 0
629 1 1 0 30 415.692 0 0 0 0
630 1 2 0 35 424.352 0 0 0 0
631 1 2 0 30 433.013 0 0 0 0
632 1 2 0 35 441.673 0 0 0 0
633 1 2 0 30 450.333 0 0 0 0
634 1 2 0 35 458.993 0 0 0 0
635 1 1 0 30 467.654 0 0 0 0
636 1 1 0 35 476.314 0 0 0 0
637 1 1 0 30 484.974 0 0 0 0
638 1 1 0 35 493.634 0 0 0 0
639 1 2 0 30 502.295 0 0 0 0
640 1 1 0 35 510.955 0 0 0 0
641 1 1 0 30 519.615 0 0 0 0
642 1 2 0 35 528.275 0 0 0 0
643 1 2 0 30 536.936 0 0 0 0
644 1 2 0 35 545.596 0 0 0 0
645 1 2 0 30 554.256 0 0 0 0
646 1 2 0 35 562.917 0 0 0 0
647 1 2 0 30 571.577 0 0 0 0
648 1 1 0 35 580.237 0 0 0 0
649 1 1 0 30 588.897 0 0 0 0
650 1 2 0 35 597.558 0 0 0 0
651 1 2 0 30 606.218 0 0 0 0
652 1 2 0 35 614.878 0 0 0 0
653 1 1 0 30 623.538 0 0 0 0
654 1 1 0 35 632.199 0 0 0 0
655 1 2 0 30 640.859 0 0 0 0
656 1 2 0 35 649.519 0 0 0 0
657 1 2 0 30 658.179 0 0 0 0
658 1 2 0 35 666.84 0 0 0 0
659 1 2 0 30 675.5 0 0 0 0
660 1 1 0 35 684.16 0 0 0 0
661 1 1 0 30 692.82 0 0 0 0
662 1 2 0 35 701.481 0 0 0 0
663 1 2 0 30 710.141 0 0 0 0
664 1 2 0 35 718.801 0 0 0 0
665 1 2 0 30 727.461 0 0 0 0
666 1 1 0 35 736.122 0 0 0 0
667 1 1 0 30 744.782 0 0 0 0
668 1 2 0 35 753.442 0 0 0 0
669 1 2 0 30 762.102 0 0 0 0
670 1 2 0 35 770.763 0 0 0 0
671 1 1 0 30 779.423 0 0 0 0
672 1 1 0 35 788.083 0 0 0 0
673 1 1 0 30 796.743 0 0 0 0
674 1 2 0 35 805.404 0 0 0 0
675 1 2 0 30 814.064 0 0 0 0
676 1 2 0 35 822.724 0 0 0 0
677 1 2 0 30 831.384 0 0 0 0
678 1 1 0 35 840.045 0 0 0 0
679 1 1 0 30 848.705 0 0 0 0
680 1 2 0 35 857.365 0 0 0 0
681 1 2 0 30 866.025 0 0 0 0
682 1 2 0 35 874.686 0 0 0 0
683 1 2 0 30 883.346 0 0 0 0
684 1 2 0 35 892.006 0 0 0 0
685 1 2 0 30 900.666 0 0 0 0
686 1 1 0 35 909.327 0 0 0 0
687 1 1 0 30 917.987 0 0 0 0
688 1 2 0 35 926.647 0 0 0 0
689 1 2 0 30 935.307 0 0 0 0
690 1 2 0 35 943.968 0 0 0 0
691 1 2 0 30 952.628 0 0 0 0
692 1 2 0 35 961.288 0 0 0 0
693 1 1 0 30 969.948 0 0 0 0
694 1 1 0 35 978.609 0 0 0 0
695 1 1 0 30 987.269 0 0 0 0
696 1 2 0 35 995.929 0 0 0 0
697 1 1 0 40 0 0 0 0 0
698 1 2 0 45 8.66 0 0 0 0
699 1 2 0 40 17.321 0 0 0 0
700 1 2 0 45 25.981 0 0 0 0
701 1 2 0 40 34.641 0 0 0 0
702 1 2 0 45 43.301 0 0 0 0
703 1 1 0 40 51.962 0 0 0 0
704 1 1 0 45 60.622 0 0 0 0
705 1 1 0 40 69.282 0 0 0 0
706 1 1 0 45 77.942 0 0 0 0
707 1 2 0 40 86.603 0 0 0 0
708 1 2 0 45 95.263 0 0 0 0
709 1 2 0 40 103.923 0 0 0 0
710 1 1 0 45 112.583 0 0 0 0
711 1 1 0 40 121.244 0 0 0 0
712 1 1 0 45 129.904 0 0 0 0
713 1 2 0 40 138.564 0 0 0 0
714 1 2 0 45 147.224 0 0 0 0
715 1 2 0 40 155.885 0 0 0 0
716 1 2 0 45 164.545 0 0 0 0
717 1 2 0 40 173.205 0 0 0 0
718 1 2 0 45 181.865 0 0 0 0
719 1 2 0 40 190.526 0 0 0 0
720 1 1 0 45 199.186 0 0 0 0
721 1 1 0 40 207.846 0 0 0 0
722 1 1 0 45 216.506 0 0 0 0
723 1 2 0 40 225.167 0 0 0 0
724 1 2 0 45 233.827 0 0 0 0
725 1 2 0 40 242.487 0 0 0 0
726 1 2 0 45 251.147 0 0 0 0
727 1 2 0 40 259.808 0 0 0 0
728 1 1 0 45 268.468 0 0 0 0
729 1 1 0 40 277.128 0 0 0 0
730 1 1 0 45 285.788 0 0 0 0
731 1 1 0 40 294.449 0 0 0 0
732 1 1 0 45 303.109 0 0 0 0
733 1 2 0 40 311.769 0 0 0 0
734 1 2 0 45 320.429 0 0 0 0
735 1 2 0 40 329.09 0 0 0 0
736 1 1 0 45 337.75 0 0 0 0
737 1 1 0 40 346.41 0 0 0 0
738 1 1 0 45 355.07 0 0 0 0
739 1 2 0 40 363.731 0 0 0 0
740 1 2 0 45 372.391 0 0 0 0
741 1 2 0 40 381.051 0 0 0 0
742 1 2 0 45 389.711 0 0 0 0
743 1 2 0 40 398.372 0 0 0 0
744 1 1 0 45 407.032 0 0 0 0
745 1 1 0 40 415.692 0 0 0 0
746 1 2 0 45 424.352 0 0 0 0
747 1 2 0 40 433.013 0 0 0 0
748 1 2 0 45 441.673 0 0 0 0
749 1 2 0 40 450.333 0 0 0 0
750 1 2 0 45 458.993 0 0 0 0
751 1 2 0 40 467.654 0 0 0 0
752 1 1 0 45 476.314 0 0 0 0
753 1 1 0 40 484.974 0 0 0 0
754 1 1 0 45 493.634 0 0 0 0
755 1 1 0 40 502.295 0 0 0 0
756 1 1 0 45 510.955 0 0 0 0
757 1 1 0 40 519.615 0 0 0 0
758 1 1 0 45 528.275 0 0 0 0
759 1 2 0 40 536.936 0 0 0 0
760 1 2 0 45 545.596 0 0 0 0
761 1 2 0 40 554.256 0 0 0 0
762 1 2 0 45 562.917 0 0 0 0
763 1 2 0 40 571.577 0 0 0 0
764 1 2 0 45 580.237 0 0 0 0
765 1 2 0 40 588.897 0 0 0 0
766 1 2 0 45 597.558 0 0 0 0
767 1 2 0 40 606.218 0 0 0 0
768 1 2 0 45 614.878 0 0 0 0
769 1 1 0 40 623.538 0 0 0 0
770 1 1 0 45 632.199 0 0 0 0
771 1 2 0 40 640.859 0 0 0 0
772 1 2 0 45 649.519 0 0 0 0
773 1 2 0 40 658.179 0 0 0 0
774 1 2 0 45 666.84 0 0 0 0
775 1 2 0 40 675.5 0 0 0 0
776 1 1 0 45 684.16 0 0 0 0
777 1 1 0 40 692.82 0 0 0 0
778 1 1 0 45 701.481 0 0 0 0
779 1 2 0 40 710.141 0 0 0 0
780 1 1 0 45 718.801 0 0 0 0
781 1 2 0 40 727.461 0 0 0 0
782 1 1 0 45 736.122 0 0 0 0
783 1 2 0 40 744.782 0 0 0 0
784 1 2 0 45 753.442 0 0 0 0
785 1 2 0 40 762.102 0 0 0 0
786 1 2 0 45 770.763 0 0 0 0
787 1 2 0 40 779.423 0 0 0 0
788 1 2 0 45 788.083 0 0 0 0
789 1 1 0 40 796.743 0 0 0 0
790 1 2 0 45 805.404 0 0 0 0
791 1 2 0 40 814.064 0 0 0 0
792 1 2 0 45 822.724 0 0 0 0
793 1 2 0 40 831.384 0 0 0 0
794 1 2 0 45 840.045 0 0 0 0
795 1 1 0 40 848.705 0 0 0 0
796 1 2 0 45 857.365 0 0 0 0
797 1 2 0 40 866.025 0 0 0 0
798 1 2 0 45 874.686 0 0 0 0
799 1 2 0 40 883.346 0 0 0 0
800 1 2 0 45 892.006 0 0 0 0
801 1 2 0 40 900.666 0 0 0 0
802 1 1 0 45 909.327 0 0 0 0
803 1 2 0 40 917.987 0 0 0 0
804 1 2 0 45 926.647 0 0 0 0
805 1 2 0 40 935.307 0 0 0 0
806 1 2 0 45 943.968 0 0 0 0
807 1 2 0 40 952.628 0 0 0 0
808 1 2 0 45 961.288 0 0 0 0
809 1 1 0 40 969.948 0 0 0 0
810 1 2 0 45 978.609 0 0 0 0
811 1 2 0 40 987.269 0 0 0 0
812 1 2 0 45 995.929 0 0 0 0
813 1 2 0 50 0 0 0 0 0
814 1 2 0 55 8.66 0 0 0 0
815 1 2 0 50 17.321 0 0 0 0
816 1 2 0 55 25.981 0 0 0 0
817 1 2 0 50 34.641 0 0 0 0
818 1 2 0 55 43.301 0 0 0 0
819 1 1 0 50 51.962 0 0 0 0
820 1 2 0 55 60.622 0 0 0 0
821 1 2 0 50 69.282 0 0 0 0
822 1 2 0 55 77.942 0 0 0 0
823 1 2 0 50 86.603 0 0 0 0
824 1 2 0 55 95.263 0 0 0 0
825 1 1 0 50 103.923 0 0 0 0
826 1 1 0 55 112.583 0 0 0 0
827 1 1 0 50 121.244 0 0 0 0
828 1 1 0 55 129.904 0 0 0 0
829 1 2 0 50 138.564 0 0 0 0
830 1 2 0 55 147.224 0 0 0 0
831 1 2 0 50 155.885 0 0 0 0
832 1 2 0 55 164.545 0 0 0 0
833 1 2 0 50 173.205 0 0 0 0
834 1 2 0 55 181.865 0 0 0 0
835 1 2 0 50 190.526 0 0 0 0
836 1 1 0 55 199.186 0 0 0 0
837 1 1 0 50 207.846 0 0 0 0
838 1 1 0 55 216.506 0 0 0 0
839 1 2 0 50 225.167 0 0 0 0
840 1 2 0 55 233.827 0 0 0 0
841 1 2 0 50 242.487 0 0 0 0
842 1 2 0 55 251.147 0 0 0 0
843 1 2 0 50 259.808 0 0 0 0
844 1 1 0 55 268.468 0 0 0 0
845 1 1 0 50 277.128 0 0 0 0
846 1 2 0 55 285.788 0 0 0 0
847 1 2 0 50 294.449 0 0 0 0
848 1 2 0 55 303.109 0 0 0 0
849 1 1 0 50 311.769 0 0 0 0
850 1 1 0 55 320.429 0 0 0 0
851 1 1 0 50 329.09 0 0 0 0
852 1 1 0 55 337.75 0 0 0 0
853 1 1 0 50 346.41 0 0 0 0
854 1 1 0 55 355.07 0 0 0 0
855 1 2 0 50 363.731 0 0 0 0
856 1 2 0 55 372.391 0 0 0 0
857 1 2 0 50 381.051 0 0 0 0
858 1 2 0 55 389.711 0 0 0 0
859 1 2 0 50 398.372 0 0 0 0
860 1 1 0 55 407.032 0 0 0 0
861 1 1 0 50 415.692 0 0 0 0
862 1 2 0 55 424.352 0 0 0 0
863 1 2 0 50 433.013 0 0 0 0
864 1 2 0 55 441.673 0 0 0 0
865 1 2 0 50 450.333 0 0 0 0
866 1 2 0 55 458.993 0 0 0 0
867 1 1 0 50 467.654 0 0 0 0
868 1 1 0 55 476.314 0 0 0 0
869 1 1 0 50 484.974 0 0 0 0
870 1 2 0 55 493.634 0 0 0 0
871 1 2 0 50 502.295 0 0 0 0
872 1 2 0 55 510.955 0 0 0 0
873 1 1 0 50 519.615 0 0 0 0
874 1 1 0 55 528.275 0 0 0 0
875 1 2 0 50 536.936 0 0 0 0
876 1 2 0 55 545.596 0 0 0 0
877 1 2 0 50 554.256 0 0 0 0
878 1 2 0 55 562.917 0 0 0 0
879 1 2 0 50 571.577 0 0 0 0
880 1 2 0 55 580.237 0 0 0 0
881 1 2 0 50 588.897 0 0 0 0
882 1 2 0 55 597.558 0 0 0 0
883 1 2 0 50 606.218 0 0 0 0
884 1 2 0 55 614.878 0 0 0 0
885 1 2 0 50 623.538 0 0 0 0
886 1 2 0 55 632.199 0 0 0 0
887 1 1 0 50 640.859 0 0 0 0
888 1 2 0 55 649.519 0 0 0 0
889 1 2 0 50 658.179 0 0 0 0
890 1 2 0 55 666.84 0 0 0 0
891 1 2 0 50 675.5 0 0 0 0
892 1 1 0 55 684.16 0 0 0 0
893 1 1 0 50 692.82 0 0 0 0
894 1 2 0 55 701.481 0 0 0 0
895 1 1 0 50 710.141 0 0 0 0
896 1 1 0 55 718.801 0 0 0 0
897 1 1 0 50 727.461 0 0 0 0
898 1 1 0 55 736.122 0 0 0 0
899 1 2 0 50 744.782 0 0 0 0
900 1 2 0 55 753.442 0 0 0 0
901 1 2 0 50 762.102 0 0 0 0
902 1 2 0 55 770.763 0 0 0 0
903 1 2 0 50 779.423 0 0 0 0
904 1 2 0 55 788.083 0 0 0 0
905 1 1 0 50 796.743 0 0 0 0
906 1 2 0 55 805.404 0 0 0 0
907 1 2 0 50 814.064 0 0 0 0
908 1 2 0 55 822.724 0 0 0 0
909 1 2 0 50 831.384 0 0 0 0
910 1 2 0 55 840.045 0 0 0 0
911 1 1 0 50 848.705 0 0 0 0
912 1 2 0 55 857.365 0 0 0 0
913 1 2 0 50 866.025 0 0 0 0
914 1 2 0 55 874.686 0 0 0 0
915 1 2 0 50 883.346 0 0 0 0
916 1 2 0 55 892.006 0 0 0 0
917 1 2 0 50 900.666 0 0 0 0
918 1 1 0 55 909.327 0 0 0 0
919 1 2 0 50 917.987 0 0 0 0
920 1 2 0 55 926.647 0 0 0 0
921 1 2 0 50 935.307 0 0 0 0
922 1 2 0 55 943.968 0 0 0 0
923 1 2 0 50 952.628 0 0 0 0
924 1 2 0 55 961.288 0 0 0 0
925 1 2 0 50 969.948 0 0 0 0
926 1 2 0 55 978.609 0 0 0 0
927 1 2 0 50 987.269 0 0 0 0
928 1 2 0 55 995.929 0 0 0 0
929 1 2 0 60 0 0 0 0 0
930 1 2 0 65 8.66 0 0 0 0
931 1 2 0 60 17.321 0 0 0 0
932 1 2 0 65 25.981 0 0 0 0
933 1 2 0 60 34.641 0 0 0 0
934 1 1 0 65 43.301 0 0 0 0
935 1 1 0 60 51.962 0 0 0 0
936 1 2 0 65 60.622 0 0 0 0
937 1 2 0 60 69.282 0 0 0 0
938 1 2 0 65 77.942 0 0 0 0
939 1 2 0 60 86.603 0 0 0 0
940 1 2 0 65 95.263 0 0 0 0
941 1 1 0 60 103.923 0 0 0 0
942 1 1 0 65 112.583 0 0 0 0
943 1 1 0 60 121.244 0 0 0 0
944 1 1 0 65 129.904 0 0 0 0
945 1 1 0 60 138.564 0 0 0 0
946 1 1 0 65 147.224 0 0 0 0
947 1 2 0 60 155.885 0 0 0 0
948 1 2 0 65 164.545 0 0 0 0
949 1 2 0 60 173.205 0 0 0 0
950 1 2 0 65 181.865 0 0 0 0
951 1 2 0 60 190.526 0 0 0 0
952 1 1 0 65 199.186 0 0 0 0
953 1 1 0 60 207.846 0 0 0 0
954 1 2 0 65 216.506 0 0 0 0
955 1 1 0 60 225.167 0 0 0 0
956 1 2 0 65 233.827 0 0 0 0
957 1 1 0 60 242.487 0 0 0 0
958 1 2 0 65 251.147 0 0 0 0
959 1 1 0 60 259.808 0 0 0 0
960 1 2 0 65 268.468 0 0 0 0
961 1 2 0 60 277.128 0 0 0 0
962 1 2 0 65 285.788 0 0 0 0
963 1 2 0 60 294.449 0 0 0 0
964 1 2 0 65 303.109 0 0 0 0
965 1 2 0 60 311.769 0 0 0 0
966 1 2 0 65 320.429 0 0 0 0
967 1 1 0 60 329.09 0 0 0 0
968 1 1 0 65 337.75 0 0 0 0
969 1 1 0 60 346.41 0 0 0 0
970 1 2 0 65 355.07 0 0 0 0
971 1 1 0 60 363.731 0 0 0 0
972 1 1 0 65 372.391 0 0 0 0
973 1 2 0 60 381.051 0 0 0 0
974 1 1 0 65 389.711 0 0 0 0
975 1 1 0 60 398.372 0 0 0 0
976 1 1 0 65 407.032 0 0 0 0
977 1 1 0 60 415.692 0 0 0 0
978 1 1 0 65 424.352 0 0 0 0
979 1 2 0 60 433.013 0 0 0 0
980 1 2 0 65 441.673 0 0 0 0
981 1 2 0 60 450.333 0 0 0 0
982 1 1 0 65 458.993 0 0 0 0
983 1 1 0 60 467.654 0 0 0 0
984 1 2 0 65 476.314 0 0 0 0
985 1 2 0 60 484.974 0 0 0 0
986 1 2 0 65 493.634 0 0 0 0
987 1 2 0 60 502.295 0 0 0 0
988 1 2 0 65 510.955 0 0 0 0
989 1 2 0 60 519.615 0 0 0 0
990 1 2 0 65 528.275 0 0 0 0
991 1 1 0 60 536.936 0 0 0 0
992 1 1 0 65 545.596 0 0 0 0
993 1 2 0 60 554.256 0 0 0 0
994 1 1 0 65 562.917 0 0 0 0
995 1 1 0 60 571.577 0 0 0 0
996 1 2 0 65 580.237 0 0 0 0
997 1 2 0 60 588.897 0 0 0 0
998 1 2 0 65 597.558 0 0 0 0
999 1 2 0 60 606.218 0 0 0 0
1000 1 2 0 65 614.878 0 0 0 0
1001 1 2 0 60 623.538 0 0 0 0
1002 1 2 0 65 632.199 0 0 0 0
1003 1 1 0 60 640.859 0 0 0 0
1004 1 1 0 65 649.519 0 0 0 0
1005 1 2 0 60 658.179 0 0 0 0
1006 1 1 0 65 666.84 0 0 0 0
1007 1 1 0 60 675.5 0 0 0 0
1008 1 2 0 65 684.16 0 0 0 0
1009 1 2 0 60 692.82 0 0 0 0
1010 1 2 0 65 701.481 0 0 0 0
1011 1 2 0 60 710.141 0 0 0 0
1012 1 2 0 65 718.801 0 0 0 0
1013 1 1 0 60 727.461 0 0 0 0
1014 1 1 0 65 736.122 0 0 0 0
1015 1 2 0 60 744.782 0 0 0 0
1016 1 2 0 65 753.442 0 0 0 0
1017 1 2 0 60 762.102 0 0 0 0
1018 1 2 0 65 770.763 0 0 0 0
1019 1 2 0 60 779.423 0 0 0 0
1020 1 2 0 65 788.083 0 0 0 0
1021 1 2 0 60 796.743 0 0 0 0
1022 1 1 0 65 805.404 0 0 0 0
1023 1 2 0 60 814.064 0 0 0 0
1024 1 2 0 65 822.724 0 0 0 0
1025 1 2 0 60 831.384 0 0 0 0
1026 1 1 0 65 840.045 0 0 0 0
1027 1 1 0 60 848.705 0 0 0 0
1028 1 1 0 65 857.365 0 0 0 0
1029 1 2 0 60 866.025 0 0 0 0
1030 1 2 0 65 874.686 0 0 0 0
1031 1 2 0 60 883.346 0 0 0 0
1032 1 2 0 65 892.006 0 0 0 0
1033 1 2 0 60 900.666 0 0 0 0